% Model:              3 wave pinched flow.mph
% Version:            COMSOL 6.0.0.318
% Date:               Dec 22 2022, 03:52
% Dimension:          1
% Nodes:              101
% Expressions:        3
% Description:        Particle position, x component, Particle position, y component, Particle diameter
% Index                   qx (mm) @ t=10           qy (mm) @ t=10           fpt.dp (um) @ t=10
1                         1.898659798109422        -0.4994116913975184      10.308692417884506
2                         1.8870627285250556       -0.5194984051365528      10.894779875052166
3                         1.5383741795439783       0.8625154343756674       2.962875291608028
4                         2.0028122136285242       -0.24168276227658256     8.4444147904323
5                         2.00847302492741         0.22055632689708143      6.276358393887211
6                         1.9972264001136693       0.2625293021156266       5.639577167760303
7                         1.7280030804051427       0.718505216162927        3.4567859707002127
8                         2.0010202802073143       0.24837034884831855      5.909479689848456
9                         1.9996916457237293       0.2533288802457454       5.835602330469521
10                        1.7351377863056254       0.7113705102624439       3.587664488659458
11                        2.0322947341949744       -0.005155062344859963    7.1613769646312395
12                        1.7307857826960298       0.71572251387204         3.519925710607652
13                        2.004014294662908        -0.23719653478144706     8.222609390719533
14                        1.3384377346630296       0.9532454106662268       2.5284612722435944
15                        1.290912206920313        0.9659798374447509       1.8995889126319012
16                        1.8766819104779011       0.5374785094183534       4.172376179732521
17                        1.3118725666571744       0.9603635259801928       2.3589295067351523
18                        1.9877096651687167       -0.2980462404523555      9.54308517431956
19                        2.032294734194975        0.04335919422916158      6.31180500529848
20                        1.9064465993870128       -0.48592455595628903     9.909738085947044
21                        1.8934280607880445       -0.5084733262499991      10.479571922601524
22                        2.0322947341949744       -0.014348912457817904    7.373105777328896
23                        1.5298176462200617       0.8674555511935608       2.8595091888730058
24                        1.2985177861070138       0.9639419286437034       2.140850119469546
25                        1.8933660497821538       -0.5085807324628296      10.487151350756486
26                        1.9045630439200003       -0.4891869697240287      10.005657810594728
27                        1.7250930806161069       0.7214152159519628       3.422545169274387
28                        1.2917561557984096       0.9657537020244119       1.8768949950917058
29                        1.333046002102794        0.9546901210515466       2.472590785646762
30                        2.0027478091588367       -0.24192312302969124     8.35169167822703
31                        1.9931340784349523       -0.277802054541513       9.216691103936613
32                        1.8871977439771126       0.5192645515137845       4.371672173424988
33                        1.5150357513244739       0.8759898821906612       2.6339790761802346
34                        1.8955076283242716       0.5048714096194831       4.639459391548612
35                        1.9917400977310165       -0.28300446135337215     9.303582448585793
36                        2.0005965444632845       -0.24995175217401908     8.586668360248114
37                        2.0322947341949744       0.020988662795594675     6.601623831072978
38                        2.000922837470043        0.248734010094644        5.876036987274849
39                        2.032294734194975        0.02106215836538447      6.556413378039242
40                        1.892419944880507        0.5102194342217727       4.5545590328828265
41                        2.0322947341949744       0.007949948124818529     6.825928591820728
42                        2.0022356456972252       -0.24383454309020547     8.485361973966514
43                        1.765785956856293        0.680722339711777        4.059794769448294
44                        2.0029540156174455       -0.24115355004931413     8.320157820462967
45                        1.5288714462383068       0.8680018400077341       2.8538125060616815
46                        2.0322947341949744       -0.0056612725232091      7.166761372320677
47                        1.7174456360656483       0.7290626605024215       3.3537028596151313
48                        1.9043287323461469       -0.48959280927474386     9.988316127190926
49                        2.002523708142545        -0.2427594794085196      8.367004356104994
50                        1.987936394789192        -0.2972000739891604      9.473660737741849
51                        2.0322947341949744       0.004264472031839966     6.916393271511757
52                        1.907150961498888        0.48470456499159487      4.982649659622607
53                        1.7293357578522774       0.7171725387157923       3.4899415398003453
54                        1.2874914623500866       0.9668964231898561       1.7539179430852572
55                        2.0322947341949744       0.011247657839248002     6.77644155284783
56                        1.9983533239732776       0.25832356501530573      5.755659733198083
57                        2.002033901529332        -0.24458746257491382     8.491356122355988
58                        1.9025185121848303       -0.4927282025670301      10.121240295511392
59                        2.0322947341949744       -0.010218187535886228    7.266805436130863
60                        1.2995943834347388       0.963653455259166        2.1401287560533713
61                        1.9175230573183601       0.4667395680512954       5.192308088070816
62                        1.9023297165981634       -0.49305520611538206     10.066933065641727
63                        1.549428668798225        0.8561331220289744       3.055867563261561
64                        1.995819757101486        -0.267778965305205       8.970599112930044
65                        1.9950649690357158       -0.2705958727156062      9.041171418554748
66                        1.7588948448461748       0.6876134517218948       4.015111625732149
67                        1.9898838087992616       -0.289932225960209       9.41458437012782
68                        1.9966460780595396       -0.2646950935063906      8.909479545623432
69                        1.8798075362763182       0.5320647667300472       4.213677104161857
70                        1.8780801887758136       0.5350566203632483       4.217249745863981
71                        1.7379790253308487       0.7085292712372209       3.66517445794645
72                        1.555565631140114        0.852589945168878        3.125539461909976
73                        1.725009303177407        0.7214989933906628       3.4338920366211525
74                        1.9970691309781556       0.2631162385198248       5.6800750525268064
75                        1.5685690713971476       0.8450824054360886       3.2577689442562097
76                        2.0322947341949744       -0.032006224683337234    7.697684011057587
77                        1.7550173585186475       0.6914909380494221       3.9590350820290756
78                        1.9008708729859314       0.4955819973720652       4.84359980999243
79                        2.002182198493631        -0.24403401076953982     8.434705211151202
80                        1.5142519977881295       0.8764423825058478       2.6896399509247293
81                        1.992617254239161        0.279730868698786        5.406532338813426
82                        2.0322947341949744       0.017115469559415758     6.67484172903136
83                        2.002093425447161        0.24436531628930933      5.994298308991552
84                        1.3106887026536906       0.9606807413838745       2.3236724590303277
85                        1.9004225883610661       0.496358449118584        4.792387490250003
86                        2.0322947341949744       0.03855989938377308      6.355231053319803
87                        2.003634464699714        0.23861407950232036      6.04671118159664
88                        1.9095945369667435       -0.4804721681291396      9.798129469976352
89                        1.7503549256691986       0.6961533708988709       3.8725641562430306
90                        1.8946494746013778       0.50635777546824         4.6093861770041755
91                        2.032294734194975        -0.005702133256331375    7.145035616375895
92                        1.9940551481390925       -0.27436457560834904     9.1637904211175
93                        1.9003578045658422       0.4964706579434191       4.798565897304271
94                        1.891862160000951        0.5111855459728574       4.5295684063090915
95                        2.0035274238544125       -0.23901356137547464     8.349166132526484
96                        1.9079970039495835       0.48323917648163         4.990473684371866
97                        2.032294734194975        0.010566303050371541     6.7969930223073485
98                        2.0061177146030342       -0.2293464646952421      8.133778769529012
99                        1.9978977723590936       -0.2600237067849115      8.823441789272744
100                       2.0322947341949744       -0.020687690206748606    7.504227421407434
101                       2.0322947341949744       -0.004741195382681222    7.136770224239907
