% Model:              1 wave pinched flow.mph
% Version:            COMSOL 6.0.0.318
% Date:               Dec 22 2022, 05:27
% Dimension:          1
% Nodes:              101
% Expressions:        3
% Description:        Particle position, x component, Particle position, y component, Particle diameter
% Index                   qx (mm) @ t=7            qy (mm) @ t=7            fpt.dp (um) @ t=7
1                         2.0019518500817526       -0.24489368274611642     10.308692417884506
2                         1.9957073134801495       -0.26819861061302014     10.894779875052166
3                         1.300705773774316        0.9633556591152002       2.962875291608028
4                         2.0322947341949744       0.020851078155158995     8.4444147904323
5                         1.9159163403552006       0.46952248346487113      6.276358393887211
6                         1.8914168792775659       0.5119567948093914       5.639577167760303
7                         1.5036320283260056       0.8825738247335909       3.4567859707002127
8                         1.8993294719682299       0.49825178224956307      5.909479689848456
9                         1.3032216174488622       0.9626815408343226       2.9111371138250237
10                        1.8980696042738658       0.5004339371070161       5.835602330469521
11                        1.9971962635425946       0.2626417733300433       7.1613769646312395
12                        1.5056977879092894       0.8813811578821007       3.519925710607652
13                        2.0322947341949744       0.04022569185114028      8.222609390719533
14                        1.2856285856660337       0.9673955794929466       2.5284612722435944
15                        1.2647425704562651       0.9729919704015082       1.8995889126319012
16                        1.5672723954713292       0.845831041630911        4.172376179732521
17                        1.2795195638279946       0.9690324869609933       2.3589295067351523
18                        2.032294734194975        -0.03290425524215801     9.54308517431956
19                        1.9211269238110222       0.4604974881823111       6.31180500529848
20                        2.007309079523292        -0.2249002302824847      9.909738085947042
21                        2.0000478316334487       -0.25199957633373254     10.479571922601524
22                        1.9988523846227413       0.2564610453154485       7.373105777328896
23                        1.296127141519918        0.9645824999302054       2.8595091888730058
24                        1.2727093686336797       0.9708572732636084       2.140850119469546
25                        2.005949256487326        -0.22997515894201426     10.00565781059473
26                        1.4993377828756556       0.8850531085003169       3.422545169274387
27                        1.267511663690837        0.9722499941055384       1.8768949950917058
28                        1.2865850638219982       0.9671392919434777       2.472590785646762
29                        2.0322947341949744       0.025199816739268553     8.35169167822703
30                        2.032294734194975        -0.018814814457125878    9.216691103936613
31                        1.7229970812575568       0.723511215310513        4.371672173424988
32                        1.2913616396340373       0.965859412312056        2.6339790761802346
33                        1.737775750387979        0.7087325461800905       4.639459391548612
34                        2.032294734194975        -0.019602774624921205    9.303582448585793
35                        2.0322947341949744       0.011880249605249608     8.586668360248114
36                        1.9915556185876337       0.28369294688941354      6.601623831072978
37                        1.8990195321036434       0.4987886138423178       5.876036987274849
38                        1.9907604166376538       0.2866606809690166       6.556413378039243
39                        1.7331719973657354       0.7133362992023344       4.554559032882827
40                        2.0322947341949744       -0.019368759983632397    9.346412240682609
41                        1.9944546872492313       0.2728734753497016       6.825928591820728
42                        2.032294734194974        0.014693469296478143     8.485361973966514
43                        1.5525570990361057       0.8543269219889928       4.059794769448294
44                        2.0322947341949744       0.02530170670807568      8.320157820462967
45                        1.296246594450283        0.9645504926139804       2.853812506061681
46                        1.9973993376837893       0.261883890317401        7.166761372320677
47                        1.3240349223374883       0.9571046325975926       3.3537028596151313
48                        2.0049156856822234       -0.23383249769987471     9.988316127190926
49                        2.032294734194975        0.025424540190772376     8.367004356104994
50                        2.0322947341949744       -0.02580429256251235     9.473660737741849
51                        1.9957396728418841       0.26807784383092614      6.916393271511757
52                        1.7550076402813286       0.6915006562867408       4.982649659622607
53                        1.502253892990065        0.8833694915407759       3.4899415398003453
54                        1.2610920271557076       0.9739701305308276       1.7539179430852572
55                        1.9937741951122947       0.27541310657889845      6.77644155284783
56                        1.8950475632936798       0.505668265627254        5.755659733198084
57                        2.032294734194975        0.014531470079858623     8.491356122355988
58                        2.003329895907188        -0.23975074571043145     10.121240295511392
59                        1.2738285987323712       0.9705573764625194       2.1401287560533713
60                        1.765854584674908        0.680653711893161        5.192308088070816
61                        2.003892142137831        -0.23765241421130798     10.066933065641727
62                        2.032294734194975        -0.0046492958781916335   8.970599112930044
63                        2.0322947341949744       -0.0035260839412052185   9.041171418554748
64                        1.5492746077331803       0.8562220692263495       4.015111625732149
65                        2.0322947341949744       -0.022987478420031383    9.41458437012782
66                        2.0322947341949744       -0.002299824809364254    8.909479545623432
67                        1.7077746350063494       0.7387336615617203       4.213677104161857
68                        1.5683673837618155       0.8451988498466394       4.217249745863981
69                        1.5202986014180258       0.8729513742724443       3.66517445794645
70                        1.312321707697113        0.9602431790012537       3.125539461909976
71                        1.4928499311204304       0.8887988714576581       3.4338920366211525
72                        1.8926562015097683       0.5098102257362676       5.6800750525268064
73                        1.3160670313838843       0.9592396225439901       3.257768944256209
74                        2.0023180155976723       0.2435271344367226       7.697684011057587
75                        1.5443690238636862       0.859054309393934        3.9590350820290756
76                        1.7452347875529266       0.7012735090151431       4.84359980999243
77                        2.0322947341949744       0.01715900828728279      8.434705211151202
78                        1.2906898072213249       0.9660394292644913       2.6896399509247293
79                        1.8833316111109613       0.5259608900667703       5.406532338813426
80                        1.992162985262282        0.28142622360080166      6.67484172903136
81                        1.9040320487492712       0.4901066803383057       5.994298308991552
82                        1.280570589039648        0.9687508656043061       2.3236724590303277
83                        1.7442483830717566       0.7022599134963131       4.792387490250003
84                        1.9877547329509542       0.29787804519926026      6.355231053319803
85                        1.9057387522110387       0.4871505832290706       6.04671118159664
86                        2.0079563675204306       -0.22248451859003496     9.798129469976352
87                        1.5363494057534919       0.8636844380686528       3.8725641562430306
88                        1.7358727456561849       0.7106355509118848       4.6093861770041755
89                        1.9972259545220314       0.26253096508625906      7.145035616375895
90                        2.032294734194975        -0.0136780671781004      9.163790421117499
91                        1.7433837859414318       0.703124510626638        4.798565897304271
92                        1.732095741193055        0.7144125553750146       4.5295684063090915
93                        2.0322947341949744       0.029005493367774644     8.349166132526484
94                        1.7540048601631488       0.6925034364049207       4.990473684371866
95                        1.9940195732577581       0.27449734287296235      6.7969930223073485
96                        2.032294734194975        0.04460695515331096      8.133778769529012
97                        2.0322947341949744       0.004039724844947669     8.823441789272744
98                        2.0004291380188226       0.2505765215302664       7.504227421407434
99                        1.9970616432209578       0.26314418321012173      7.136770224239907
100                       1.5200567848019393       0.8730909871608363       3.649936500015281
101                       1.3026289765083505       0.9628403384957345       3.0192163219977153
